  67  67   0   0
  0.3434759E+02  0.1005292E-08  0.1005292E-08  0.2277123E-08  0.0000000E+00
  1.000000000000000E-004
  CAR 
 Ni4 HCOO.tt                             
      7.06663602    -24.10537077  301     -0.41740489      1.00000000
    -24.105  0.0000E+00  0.0000E+00  0.0000E+00  0.0000E+00
    -24.001  0.0000E+00  0.0000E+00  0.0000E+00  0.0000E+00
    -23.898  0.0000E+00  0.0000E+00  0.0000E+00  0.0000E+00
    -23.794  0.0000E+00  0.0000E+00  0.0000E+00  0.0000E+00
    -23.690  0.0000E+00  0.0000E+00  0.0000E+00  0.0000E+00
    -23.586  0.0000E+00  0.0000E+00  0.0000E+00  0.0000E+00
    -23.482  0.0000E+00  0.0000E+00  0.0000E+00  0.0000E+00
    -23.378  0.0000E+00  0.0000E+00  0.0000E+00  0.0000E+00
    -23.274  0.0000E+00  0.0000E+00  0.0000E+00  0.0000E+00
    -23.170 -0.2090E-40 -0.6746E-43 -0.2171E-41 -0.7010E-44
    -23.066 -0.5384E-25 -0.5965E-27 -0.5595E-26 -0.6198E-28
    -22.962 -0.2200E-13 -0.8432E-15 -0.2286E-14 -0.8761E-16
    -22.858 -0.1338E-05 -0.1820E-06 -0.1390E-06 -0.1891E-07
    -22.755 -0.5479E-02 -0.3570E-02 -0.5694E-03 -0.3710E-03
    -22.651  0.1623E+00  0.1395E+00  0.1630E-01  0.1413E-01
    -22.547  0.3608E-02  0.2458E-01  0.1667E-01  0.1668E-01
    -22.443 -0.3686E-04 -0.1559E-03  0.1667E-01  0.1667E-01
    -22.339 -0.7109E-11 -0.1102E-09  0.1667E-01  0.1667E-01
    -22.235  0.0000E+00  0.0000E+00  0.1667E-01  0.1667E-01
    -22.131  0.0000E+00  0.0000E+00  0.1667E-01  0.1667E-01
    -22.027  0.0000E+00  0.0000E+00  0.1667E-01  0.1667E-01
    -21.923  0.0000E+00  0.0000E+00  0.1667E-01  0.1667E-01
    -21.819  0.0000E+00  0.0000E+00  0.1667E-01  0.1667E-01
    -21.716  0.0000E+00  0.0000E+00  0.1667E-01  0.1667E-01
    -21.612  0.0000E+00  0.0000E+00  0.1667E-01  0.1667E-01
    -21.508  0.0000E+00  0.0000E+00  0.1667E-01  0.1667E-01
    -21.404  0.0000E+00  0.0000E+00  0.1667E-01  0.1667E-01
    -21.300  0.0000E+00  0.0000E+00  0.1667E-01  0.1667E-01
    -21.196 -0.4420E-30 -0.1652E-36  0.1667E-01  0.1667E-01
    -21.092 -0.4259E-17 -0.5698E-22  0.1667E-01  0.1667E-01
    -20.988 -0.6101E-08 -0.3059E-11  0.1667E-01  0.1667E-01
    -20.884 -0.1026E-02 -0.2320E-04  0.1656E-01  0.1666E-01
    -20.780  0.8272E-01  0.6166E-05  0.2516E-01  0.1666E-01
    -20.676  0.7965E-01  0.1661E+00  0.3343E-01  0.3392E-01
    -20.573 -0.9512E-03 -0.5682E-02  0.3333E-01  0.3333E-01
    -20.469 -0.5108E-08 -0.2327E-05  0.3333E-01  0.3333E-01
    -20.365  0.0000E+00 -0.5568E-13  0.3333E-01  0.3333E-01
    -20.261  0.0000E+00  0.0000E+00  0.3333E-01  0.3333E-01
    -20.157  0.0000E+00  0.0000E+00  0.3333E-01  0.3333E-01
    -20.053  0.0000E+00  0.0000E+00  0.3333E-01  0.3333E-01
    -19.949  0.0000E+00  0.0000E+00  0.3333E-01  0.3333E-01
    -19.845  0.0000E+00  0.0000E+00  0.3333E-01  0.3333E-01
    -19.741  0.0000E+00  0.0000E+00  0.3333E-01  0.3333E-01
    -19.637  0.0000E+00  0.0000E+00  0.3333E-01  0.3333E-01
    -19.533  0.0000E+00  0.0000E+00  0.3333E-01  0.3333E-01
    -19.430  0.0000E+00  0.0000E+00  0.3333E-01  0.3333E-01
    -19.326  0.0000E+00  0.0000E+00  0.3333E-01  0.3333E-01
    -19.222  0.0000E+00  0.0000E+00  0.3333E-01  0.3333E-01
    -19.118  0.0000E+00  0.0000E+00  0.3333E-01  0.3333E-01
    -19.014  0.0000E+00  0.0000E+00  0.3333E-01  0.3333E-01
    -18.910  0.0000E+00  0.0000E+00  0.3333E-01  0.3333E-01
    -18.806  0.0000E+00  0.0000E+00  0.3333E-01  0.3333E-01
    -18.702  0.0000E+00  0.0000E+00  0.3333E-01  0.3333E-01
    -18.598  0.0000E+00  0.0000E+00  0.3333E-01  0.3333E-01
    -18.494  0.0000E+00  0.0000E+00  0.3333E-01  0.3333E-01
    -18.391  0.0000E+00  0.0000E+00  0.3333E-01  0.3333E-01
    -18.287  0.0000E+00  0.0000E+00  0.3333E-01  0.3333E-01
    -18.183  0.0000E+00  0.0000E+00  0.3333E-01  0.3333E-01
    -18.079  0.0000E+00  0.0000E+00  0.3333E-01  0.3333E-01
    -17.975  0.0000E+00  0.0000E+00  0.3333E-01  0.3333E-01
    -17.871  0.0000E+00  0.0000E+00  0.3333E-01  0.3333E-01
    -17.767  0.0000E+00  0.0000E+00  0.3333E-01  0.3333E-01
    -17.663  0.0000E+00  0.0000E+00  0.3333E-01  0.3333E-01
    -17.559  0.0000E+00  0.0000E+00  0.3333E-01  0.3333E-01
    -17.455  0.0000E+00  0.0000E+00  0.3333E-01  0.3333E-01
    -17.351  0.0000E+00  0.0000E+00  0.3333E-01  0.3333E-01
    -17.248  0.0000E+00  0.0000E+00  0.3333E-01  0.3333E-01
    -17.144  0.0000E+00  0.0000E+00  0.3333E-01  0.3333E-01
    -17.040  0.0000E+00  0.0000E+00  0.3333E-01  0.3333E-01
    -16.936  0.0000E+00  0.0000E+00  0.3333E-01  0.3333E-01
    -16.832  0.0000E+00  0.0000E+00  0.3333E-01  0.3333E-01
    -16.728  0.0000E+00  0.0000E+00  0.3333E-01  0.3333E-01
    -16.624  0.0000E+00  0.0000E+00  0.3333E-01  0.3333E-01
    -16.520  0.0000E+00  0.0000E+00  0.3333E-01  0.3333E-01
    -16.416  0.0000E+00  0.0000E+00  0.3333E-01  0.3333E-01
    -16.312  0.0000E+00  0.0000E+00  0.3333E-01  0.3333E-01
    -16.208  0.0000E+00  0.0000E+00  0.3333E-01  0.3333E-01
    -16.105  0.0000E+00  0.0000E+00  0.3333E-01  0.3333E-01
    -16.001  0.0000E+00  0.0000E+00  0.3333E-01  0.3333E-01
    -15.897  0.0000E+00  0.0000E+00  0.3333E-01  0.3333E-01
    -15.793  0.0000E+00  0.0000E+00  0.3333E-01  0.3333E-01
    -15.689  0.0000E+00  0.0000E+00  0.3333E-01  0.3333E-01
    -15.585  0.0000E+00  0.0000E+00  0.3333E-01  0.3333E-01
    -15.481  0.0000E+00  0.0000E+00  0.3333E-01  0.3333E-01
    -15.377  0.0000E+00  0.0000E+00  0.3333E-01  0.3333E-01
    -15.273  0.0000E+00  0.0000E+00  0.3333E-01  0.3333E-01
    -15.169  0.0000E+00  0.0000E+00  0.3333E-01  0.3333E-01
    -15.065  0.0000E+00  0.0000E+00  0.3333E-01  0.3333E-01
    -14.962  0.0000E+00  0.0000E+00  0.3333E-01  0.3333E-01
    -14.858  0.0000E+00  0.0000E+00  0.3333E-01  0.3333E-01
    -14.754  0.0000E+00  0.0000E+00  0.3333E-01  0.3333E-01
    -14.650  0.0000E+00  0.0000E+00  0.3333E-01  0.3333E-01
    -14.546  0.0000E+00  0.0000E+00  0.3333E-01  0.3333E-01
    -14.442  0.0000E+00  0.0000E+00  0.3333E-01  0.3333E-01
    -14.338  0.0000E+00  0.0000E+00  0.3333E-01  0.3333E-01
    -14.234  0.0000E+00  0.0000E+00  0.3333E-01  0.3333E-01
    -14.130  0.0000E+00  0.0000E+00  0.3333E-01  0.3333E-01
    -14.026  0.0000E+00  0.0000E+00  0.3333E-01  0.3333E-01
    -13.923  0.0000E+00  0.0000E+00  0.3333E-01  0.3333E-01
    -13.819  0.0000E+00  0.0000E+00  0.3333E-01  0.3333E-01
    -13.715  0.0000E+00  0.0000E+00  0.3333E-01  0.3333E-01
    -13.611  0.0000E+00  0.0000E+00  0.3333E-01  0.3333E-01
    -13.507  0.0000E+00  0.0000E+00  0.3333E-01  0.3333E-01
    -13.403  0.0000E+00  0.0000E+00  0.3333E-01  0.3333E-01
    -13.299  0.0000E+00  0.0000E+00  0.3333E-01  0.3333E-01
    -13.195  0.0000E+00  0.0000E+00  0.3333E-01  0.3333E-01
    -13.091  0.0000E+00  0.0000E+00  0.3333E-01  0.3333E-01
    -12.987  0.0000E+00  0.0000E+00  0.3333E-01  0.3333E-01
    -12.883  0.0000E+00  0.0000E+00  0.3333E-01  0.3333E-01
    -12.780  0.0000E+00  0.0000E+00  0.3333E-01  0.3333E-01
    -12.676  0.0000E+00  0.0000E+00  0.3333E-01  0.3333E-01
    -12.572  0.0000E+00  0.0000E+00  0.3333E-01  0.3333E-01
    -12.468  0.0000E+00  0.0000E+00  0.3333E-01  0.3333E-01
    -12.364  0.0000E+00  0.0000E+00  0.3333E-01  0.3333E-01
    -12.260  0.0000E+00  0.0000E+00  0.3333E-01  0.3333E-01
    -12.156  0.0000E+00  0.0000E+00  0.3333E-01  0.3333E-01
    -12.052  0.0000E+00  0.0000E+00  0.3333E-01  0.3333E-01
    -11.948  0.0000E+00  0.0000E+00  0.3333E-01  0.3333E-01
    -11.844  0.0000E+00  0.0000E+00  0.3333E-01  0.3333E-01
    -11.740  0.0000E+00  0.0000E+00  0.3333E-01  0.3333E-01
    -11.637  0.0000E+00  0.0000E+00  0.3333E-01  0.3333E-01
    -11.533  0.0000E+00  0.0000E+00  0.3333E-01  0.3333E-01
    -11.429  0.0000E+00  0.0000E+00  0.3333E-01  0.3333E-01
    -11.325  0.0000E+00  0.0000E+00  0.3333E-01  0.3333E-01
    -11.221  0.0000E+00  0.0000E+00  0.3333E-01  0.3333E-01
    -11.117  0.0000E+00  0.0000E+00  0.3333E-01  0.3333E-01
    -11.013  0.0000E+00  0.0000E+00  0.3333E-01  0.3333E-01
    -10.909  0.0000E+00  0.0000E+00  0.3333E-01  0.3333E-01
    -10.805  0.0000E+00  0.0000E+00  0.3333E-01  0.3333E-01
    -10.701  0.0000E+00  0.0000E+00  0.3333E-01  0.3333E-01
    -10.598  0.0000E+00  0.0000E+00  0.3333E-01  0.3333E-01
    -10.494  0.0000E+00  0.0000E+00  0.3333E-01  0.3333E-01
    -10.390  0.0000E+00  0.0000E+00  0.3333E-01  0.3333E-01
    -10.286 -0.1399E-32 -0.4772E-33  0.3333E-01  0.3333E-01
    -10.182 -0.5653E-19 -0.2504E-19  0.3333E-01  0.3333E-01
    -10.078 -0.3471E-09 -0.2004E-09  0.3333E-01  0.3333E-01
     -9.974 -0.2757E-03 -0.2104E-03  0.3330E-01  0.3331E-01
     -9.870  0.3812E-01  0.3127E-01  0.3727E-01  0.3656E-01
     -9.766  0.1252E+00  0.1324E+00  0.5028E-01  0.5032E-01
     -9.662 -0.2656E-02 -0.3086E-02  0.5000E-01  0.5000E-01
     -9.558 -0.7169E-07 -0.1131E-06  0.5000E-01  0.5000E-01
     -9.455 -0.1959E-15 -0.4096E-15  0.5000E-01  0.5000E-01
     -9.351  0.0000E+00  0.0000E+00  0.5000E-01  0.5000E-01
     -9.247  0.0000E+00  0.0000E+00  0.5000E-01  0.5000E-01
     -9.143  0.0000E+00  0.0000E+00  0.5000E-01  0.5000E-01
     -9.039 -0.6059E-39 -0.8752E-30  0.5000E-01  0.5000E-01
     -8.935 -0.5453E-24 -0.4958E-17  0.5000E-01  0.5000E-01
     -8.831 -0.7712E-13 -0.4139E-08  0.5000E-01  0.5000E-01
     -8.727 -0.1584E-05 -0.3866E-03  0.5000E-01  0.4996E-01
     -8.623 -0.1243E-02  0.2506E-01  0.4987E-01  0.5256E-01
     -8.519  0.4231E-01  0.1315E-01  0.5427E-01  0.5393E-01
     -8.415  0.1065E-01  0.7741E-01  0.5537E-01  0.6197E-01
     -8.312  0.6946E-01  0.7244E-02  0.6259E-01  0.6273E-01
     -8.208  0.3398E-01  0.3891E-01  0.6612E-01  0.6677E-01
     -8.104  0.2836E-02  0.2677E-01  0.6642E-01  0.6955E-01
     -8.000  0.8467E-01  0.7116E-01  0.7521E-01  0.7694E-01
     -7.896  0.5558E-01  0.3602E-01  0.8099E-01  0.8069E-01
     -7.792  0.3069E-01  0.6486E-01  0.8418E-01  0.8743E-01
     -7.688  0.1121E+00  0.8225E-01  0.9583E-01  0.9597E-01
     -7.584  0.2806E-01  0.3942E-01  0.9875E-01  0.1001E+00
     -7.480  0.1240E-01  0.2228E-01  0.1000E+00  0.1024E+00
     -7.376  0.5341E-01  0.8110E-01  0.1056E+00  0.1108E+00
     -7.272  0.9522E-01  0.6591E-01  0.1155E+00  0.1177E+00
     -7.169  0.6929E-01  0.2743E-01  0.1227E+00  0.1205E+00
     -7.065  0.1466E+00  0.1640E+00  0.1379E+00  0.1376E+00
     -6.961 -0.4450E-02 -0.2907E-02  0.1375E+00  0.1373E+00
     -6.857  0.3564E-01  0.8739E-01  0.1412E+00  0.1463E+00
     -6.753  0.1643E+00  0.1580E+00  0.1582E+00  0.1628E+00
     -6.649  0.1285E+00  0.1279E+00  0.1716E+00  0.1760E+00
     -6.545  0.1378E+00  0.1293E+00  0.1859E+00  0.1895E+00
     -6.441  0.7894E-01  0.6209E-01  0.1941E+00  0.1959E+00
     -6.337  0.5298E-01  0.5249E-01  0.1996E+00  0.2014E+00
     -6.233  0.8673E-01  0.8574E-01  0.2086E+00  0.2103E+00
     -6.130  0.1184E+00  0.1044E+00  0.2209E+00  0.2211E+00
     -6.026  0.4552E-01  0.3902E-01  0.2256E+00  0.2252E+00
     -5.922  0.8219E-01  0.8748E-01  0.2342E+00  0.2343E+00
     -5.818  0.1540E+00  0.1438E+00  0.2502E+00  0.2492E+00
     -5.714  0.1437E+00  0.1440E+00  0.2651E+00  0.2642E+00
     -5.610  0.5792E-01  0.6307E-01  0.2711E+00  0.2707E+00
     -5.506  0.7787E-01  0.7736E-01  0.2792E+00  0.2788E+00
     -5.402  0.9204E-01  0.1864E-01  0.2888E+00  0.2807E+00
     -5.298  0.1948E+00  0.1478E+00  0.3090E+00  0.2961E+00
     -5.194  0.2163E+00  0.1576E+00  0.3315E+00  0.3125E+00
     -5.090  0.4064E-01  0.1609E+00  0.3357E+00  0.3292E+00
     -4.987  0.2010E+00  0.5560E-01  0.3566E+00  0.3350E+00
     -4.883  0.3870E+00  0.1185E+00  0.3968E+00  0.3473E+00
     -4.779  0.3138E+00  0.2508E+00  0.4294E+00  0.3733E+00
     -4.675  0.3908E+00  0.1635E+00  0.4700E+00  0.3903E+00
     -4.571  0.5874E+00  0.1938E+00  0.5311E+00  0.4105E+00
     -4.467  0.5602E+00  0.3509E+00  0.5893E+00  0.4469E+00
     -4.363  0.5852E+00  0.3724E+00  0.6501E+00  0.4856E+00
     -4.259  0.6818E+00  0.4315E+00  0.7209E+00  0.5305E+00
     -4.155  0.9951E+00  0.4045E+00  0.8243E+00  0.5725E+00
     -4.051  0.1262E+01  0.6260E+00  0.9555E+00  0.6375E+00
     -3.947  0.9554E+00  0.4275E+00  0.1055E+01  0.6819E+00
     -3.844  0.1089E+01  0.3877E+00  0.1168E+01  0.7222E+00
     -3.740  0.1089E+01  0.6403E+00  0.1281E+01  0.7888E+00
     -3.636  0.8415E+00  0.5160E+00  0.1369E+01  0.8424E+00
     -3.532  0.8802E+00  0.8645E+00  0.1460E+01  0.9322E+00
     -3.428  0.9076E+00  0.1336E+01  0.1554E+01  0.1071E+01
     -3.324  0.1184E+01  0.9999E+00  0.1677E+01  0.1175E+01
     -3.220  0.8832E+00  0.9959E+00  0.1769E+01  0.1278E+01
     -3.116  0.1148E+01  0.6560E+00  0.1888E+01  0.1347E+01
     -3.012  0.1187E+01  0.5544E+00  0.2012E+01  0.1404E+01
     -2.908  0.9569E+00  0.7595E+00  0.2111E+01  0.1483E+01
     -2.804  0.1242E+01  0.8681E+00  0.2240E+01  0.1573E+01
     -2.701  0.1227E+01  0.1135E+01  0.2368E+01  0.1691E+01
     -2.597  0.2227E+01  0.9882E+00  0.2599E+01  0.1794E+01
     -2.493  0.2225E+01  0.1041E+01  0.2830E+01  0.1902E+01
     -2.389  0.1347E+01  0.1070E+01  0.2970E+01  0.2013E+01
     -2.285  0.1205E+01  0.1062E+01  0.3095E+01  0.2124E+01
     -2.181  0.1322E+01  0.9897E+00  0.3233E+01  0.2226E+01
     -2.077  0.1656E+01  0.1158E+01  0.3405E+01  0.2347E+01
     -1.973  0.1753E+01  0.1400E+01  0.3587E+01  0.2492E+01
     -1.869  0.1706E+01  0.1513E+01  0.3764E+01  0.2649E+01
     -1.765  0.1715E+01  0.2137E+01  0.3942E+01  0.2871E+01
     -1.662  0.1634E+01  0.1263E+01  0.4112E+01  0.3003E+01
     -1.558  0.2046E+01  0.1323E+01  0.4325E+01  0.3140E+01
     -1.454  0.1997E+01  0.1268E+01  0.4532E+01  0.3272E+01
     -1.350  0.1857E+01  0.1725E+01  0.4725E+01  0.3451E+01
     -1.246  0.2498E+01  0.1757E+01  0.4985E+01  0.3634E+01
     -1.142  0.2169E+01  0.1759E+01  0.5210E+01  0.3816E+01
     -1.038  0.2842E+01  0.1589E+01  0.5505E+01  0.3981E+01
     -0.934  0.1744E+01  0.1653E+01  0.5687E+01  0.4153E+01
     -0.830  0.4326E+00  0.1840E+01  0.5732E+01  0.4344E+01
     -0.726  0.1907E+00  0.1730E+01  0.5751E+01  0.4524E+01
     -0.622  0.3847E+00  0.1428E+01  0.5791E+01  0.4672E+01
     -0.519  0.2043E+00  0.2113E+01  0.5813E+01  0.4892E+01
     -0.415  0.1649E+00  0.2096E+01  0.5830E+01  0.5110E+01
     -0.311  0.1498E+00  0.1680E+01  0.5845E+01  0.5284E+01
     -0.207  0.1697E+00  0.1878E+01  0.5863E+01  0.5479E+01
     -0.103  0.1254E+00  0.1966E+01  0.5876E+01  0.5684E+01
      0.001  0.2758E+00  0.6679E+00  0.5905E+01  0.5753E+01
      0.105  0.1863E+00  0.5282E+00  0.5924E+01  0.5808E+01
      0.209  0.1422E+00  0.3573E+00  0.5939E+01  0.5845E+01
      0.313  0.1469E+00  0.2353E+00  0.5954E+01  0.5870E+01
      0.417  0.2540E+00  0.9889E-01  0.5980E+01  0.5880E+01
      0.521  0.1797E+00  0.3326E+00  0.5999E+01  0.5914E+01
      0.624  0.1634E+00  0.1988E+00  0.6016E+01  0.5935E+01
      0.728  0.1940E+00  0.2365E+00  0.6036E+01  0.5960E+01
      0.832  0.1349E+00  0.1649E+00  0.6050E+01  0.5977E+01
      0.936  0.8535E-01  0.3730E+00  0.6059E+01  0.6016E+01
      1.040  0.2047E+00  0.8919E-01  0.6080E+01  0.6025E+01
      1.144  0.3230E+00  0.2261E+00  0.6114E+01  0.6048E+01
      1.248  0.1311E+00  0.9185E-01  0.6128E+01  0.6058E+01
      1.352  0.1372E+00  0.2477E+00  0.6142E+01  0.6084E+01
      1.456  0.4941E-01  0.2210E+00  0.6147E+01  0.6107E+01
      1.560  0.2122E+00  0.1525E+00  0.6169E+01  0.6122E+01
      1.663  0.2538E+00  0.1892E+00  0.6195E+01  0.6142E+01
      1.767  0.1626E+00  0.1515E+00  0.6212E+01  0.6158E+01
      1.871  0.5920E-01  0.1480E+00  0.6218E+01  0.6173E+01
      1.975  0.1417E+00  0.2954E+00  0.6233E+01  0.6204E+01
      2.079  0.1528E+00  0.1993E+00  0.6249E+01  0.6225E+01
      2.183  0.1591E+00  0.1929E-01  0.6266E+01  0.6227E+01
      2.287  0.1866E+00  0.2033E+00  0.6285E+01  0.6248E+01
      2.391  0.1628E+00  0.1708E+00  0.6302E+01  0.6265E+01
      2.495  0.2473E+00  0.1444E+00  0.6328E+01  0.6280E+01
      2.599  0.1308E+00  0.1528E+00  0.6341E+01  0.6296E+01
      2.703  0.2193E+00  0.2518E+00  0.6364E+01  0.6323E+01
      2.806  0.1212E+00  0.2115E+00  0.6377E+01  0.6344E+01
      2.910  0.1483E+00  0.2275E+00  0.6392E+01  0.6368E+01
      3.014  0.2070E+00  0.1030E+00  0.6413E+01  0.6379E+01
      3.118  0.8148E-01  0.1669E+00  0.6422E+01  0.6396E+01
      3.222  0.1502E+00  0.2252E+00  0.6438E+01  0.6420E+01
      3.326  0.1612E+00  0.1232E+00  0.6454E+01  0.6432E+01
      3.430  0.1170E+00  0.1044E+00  0.6466E+01  0.6443E+01
      3.534  0.1937E+00  0.1167E+00  0.6487E+01  0.6455E+01
      3.638  0.2141E+00  0.1597E+00  0.6509E+01  0.6472E+01
      3.742  0.3547E-01  0.1948E+00  0.6513E+01  0.6492E+01
      3.846  0.5371E-02  0.1995E+00  0.6513E+01  0.6513E+01
      3.949  0.8678E-01 -0.4875E-02  0.6522E+01  0.6512E+01
      4.053  0.1679E+00  0.4675E-01  0.6540E+01  0.6517E+01
      4.157  0.2046E+00  0.7379E-01  0.6561E+01  0.6525E+01
      4.261  0.2097E+00  0.1436E+00  0.6583E+01  0.6540E+01
      4.365  0.2569E+00  0.3147E+00  0.6609E+01  0.6573E+01
      4.469  0.1537E+00  0.2161E+00  0.6625E+01  0.6595E+01
      4.573  0.3281E+00  0.2593E+00  0.6659E+01  0.6622E+01
      4.677  0.1848E+00  0.2479E+00  0.6679E+01  0.6648E+01
      4.781  0.2814E+00  0.2662E+00  0.6708E+01  0.6675E+01
      4.885  0.3356E+00  0.2493E+00  0.6743E+01  0.6701E+01
      4.989  0.1940E+00  0.2580E+00  0.6763E+01  0.6728E+01
      5.092  0.2402E+00  0.3268E+00  0.6788E+01  0.6762E+01
      5.196  0.2654E+00  0.2886E+00  0.6815E+01  0.6792E+01
      5.300  0.2708E+00  0.1679E+00  0.6843E+01  0.6809E+01
      5.404  0.1607E+00  0.2378E+00  0.6860E+01  0.6834E+01
      5.508  0.2517E+00  0.3143E+00  0.6886E+01  0.6867E+01
      5.612  0.1150E+00  0.1801E+00  0.6898E+01  0.6886E+01
      5.716  0.1666E-01  0.1424E+00  0.6900E+01  0.6900E+01
      5.820 -0.1278E-03 -0.3582E-02  0.6900E+01  0.6900E+01
      5.924 -0.1565E-09 -0.5566E-06  0.6900E+01  0.6900E+01
      6.028  0.0000E+00 -0.8080E-14  0.6900E+01  0.6900E+01
      6.131  0.0000E+00  0.0000E+00  0.6900E+01  0.6900E+01
      6.235  0.0000E+00  0.0000E+00  0.6900E+01  0.6900E+01
      6.339  0.0000E+00  0.0000E+00  0.6900E+01  0.6900E+01
      6.443  0.0000E+00  0.0000E+00  0.6900E+01  0.6900E+01
      6.547  0.0000E+00  0.0000E+00  0.6900E+01  0.6900E+01
      6.651  0.0000E+00  0.0000E+00  0.6900E+01  0.6900E+01
      6.755  0.0000E+00  0.0000E+00  0.6900E+01  0.6900E+01
      6.859  0.0000E+00  0.0000E+00  0.6900E+01  0.6900E+01
      6.963  0.0000E+00  0.0000E+00  0.6900E+01  0.6900E+01
      7.067  0.0000E+00  0.0000E+00  0.6900E+01  0.6900E+01
