  67  67   0   0
  0.3434759E+02  0.1005292E-08  0.1005292E-08  0.2277123E-08  0.0000000E+00
  1.000000000000000E-004
  CAR 
 Ni4 HCOO.tt                             
      7.09806795    -24.72449910  301     -0.35399628      1.00000000
    -24.724  0.0000E+00  0.0000E+00  0.0000E+00  0.0000E+00
    -24.618  0.0000E+00  0.0000E+00  0.0000E+00  0.0000E+00
    -24.512  0.0000E+00  0.0000E+00  0.0000E+00  0.0000E+00
    -24.406  0.0000E+00  0.0000E+00  0.0000E+00  0.0000E+00
    -24.300  0.0000E+00  0.0000E+00  0.0000E+00  0.0000E+00
    -24.194  0.0000E+00  0.0000E+00  0.0000E+00  0.0000E+00
    -24.088  0.0000E+00  0.0000E+00  0.0000E+00  0.0000E+00
    -23.982  0.0000E+00  0.0000E+00  0.0000E+00  0.0000E+00
    -23.876  0.0000E+00  0.0000E+00  0.0000E+00  0.0000E+00
    -23.770  0.0000E+00 -0.4154E-42  0.0000E+00 -0.4406E-43
    -23.664 -0.2844E-31 -0.4832E-26 -0.3017E-32 -0.5126E-27
    -23.558 -0.9390E-18 -0.6203E-14 -0.9961E-19 -0.6579E-15
    -23.452 -0.3207E-08 -0.8236E-06 -0.3402E-09 -0.8736E-07
    -23.346 -0.8956E-03 -0.5250E-02 -0.9500E-04 -0.5569E-03
    -23.239  0.8224E-01  0.1596E+00  0.8629E-02  0.1637E-01
    -23.133  0.7655E-01  0.2815E-02  0.1675E-01  0.1667E-01
    -23.027 -0.7718E-03 -0.2643E-04  0.1667E-01  0.1667E-01
    -22.921 -0.2272E-08 -0.2578E-11  0.1667E-01  0.1667E-01
    -22.815  0.0000E+00  0.0000E+00  0.1667E-01  0.1667E-01
    -22.709  0.0000E+00  0.0000E+00  0.1667E-01  0.1667E-01
    -22.603  0.0000E+00  0.0000E+00  0.1667E-01  0.1667E-01
    -22.497  0.0000E+00  0.0000E+00  0.1667E-01  0.1667E-01
    -22.391  0.0000E+00  0.0000E+00  0.1667E-01  0.1667E-01
    -22.285  0.0000E+00  0.0000E+00  0.1667E-01  0.1667E-01
    -22.179  0.0000E+00  0.0000E+00  0.1667E-01  0.1667E-01
    -22.073  0.0000E+00  0.0000E+00  0.1667E-01  0.1667E-01
    -21.967  0.0000E+00  0.0000E+00  0.1667E-01  0.1667E-01
    -21.860  0.0000E+00  0.0000E+00  0.1667E-01  0.1667E-01
    -21.754  0.0000E+00  0.0000E+00  0.1667E-01  0.1667E-01
    -21.648  0.0000E+00  0.0000E+00  0.1667E-01  0.1667E-01
    -21.542  0.0000E+00  0.0000E+00  0.1667E-01  0.1667E-01
    -21.436  0.0000E+00  0.0000E+00  0.1667E-01  0.1667E-01
    -21.330  0.0000E+00  0.0000E+00  0.1667E-01  0.1667E-01
    -21.224  0.0000E+00  0.0000E+00  0.1667E-01  0.1667E-01
    -21.118  0.0000E+00  0.0000E+00  0.1667E-01  0.1667E-01
    -21.012  0.0000E+00  0.0000E+00  0.1667E-01  0.1667E-01
    -20.906  0.0000E+00  0.0000E+00  0.1667E-01  0.1667E-01
    -20.800  0.0000E+00  0.0000E+00  0.1667E-01  0.1667E-01
    -20.694  0.0000E+00  0.0000E+00  0.1667E-01  0.1667E-01
    -20.588  0.0000E+00  0.0000E+00  0.1667E-01  0.1667E-01
    -20.481  0.0000E+00  0.0000E+00  0.1667E-01  0.1667E-01
    -20.375  0.0000E+00  0.0000E+00  0.1667E-01  0.1667E-01
    -20.269  0.0000E+00  0.0000E+00  0.1667E-01  0.1667E-01
    -20.163  0.0000E+00  0.0000E+00  0.1667E-01  0.1667E-01
    -20.057 -0.2739E-42  0.0000E+00  0.1667E-01  0.1667E-01
    -19.951 -0.3489E-26  0.0000E+00  0.1667E-01  0.1667E-01
    -19.845 -0.4908E-14  0.0000E+00  0.1667E-01  0.1667E-01
    -19.739 -0.7153E-06 -0.1162E-34  0.1667E-01  0.1667E-01
    -19.633 -0.5146E-02 -0.2654E-20  0.1612E-01  0.1667E-01
    -19.527  0.1585E+00 -0.6440E-10  0.3293E-01  0.1667E-01
    -19.421  0.3792E-02 -0.1435E-03  0.3334E-01  0.1665E-01
    -19.315 -0.2960E-04  0.2688E-01  0.3333E-01  0.1950E-01
    -19.209 -0.3174E-11  0.1334E+00  0.3333E-01  0.3365E-01
    -19.103  0.0000E+00 -0.2979E-02  0.3333E-01  0.3333E-01
    -18.996  0.0000E+00 -0.7704E-07  0.3333E-01  0.3333E-01
    -18.890  0.0000E+00  0.0000E+00  0.3333E-01  0.3333E-01
    -18.784  0.0000E+00  0.0000E+00  0.3333E-01  0.3333E-01
    -18.678  0.0000E+00  0.0000E+00  0.3333E-01  0.3333E-01
    -18.572  0.0000E+00  0.0000E+00  0.3333E-01  0.3333E-01
    -18.466  0.0000E+00  0.0000E+00  0.3333E-01  0.3333E-01
    -18.360  0.0000E+00  0.0000E+00  0.3333E-01  0.3333E-01
    -18.254  0.0000E+00  0.0000E+00  0.3333E-01  0.3333E-01
    -18.148  0.0000E+00  0.0000E+00  0.3333E-01  0.3333E-01
    -18.042  0.0000E+00  0.0000E+00  0.3333E-01  0.3333E-01
    -17.936  0.0000E+00  0.0000E+00  0.3333E-01  0.3333E-01
    -17.830  0.0000E+00  0.0000E+00  0.3333E-01  0.3333E-01
    -17.724  0.0000E+00  0.0000E+00  0.3333E-01  0.3333E-01
    -17.617  0.0000E+00  0.0000E+00  0.3333E-01  0.3333E-01
    -17.511  0.0000E+00  0.0000E+00  0.3333E-01  0.3333E-01
    -17.405  0.0000E+00  0.0000E+00  0.3333E-01  0.3333E-01
    -17.299  0.0000E+00  0.0000E+00  0.3333E-01  0.3333E-01
    -17.193  0.0000E+00  0.0000E+00  0.3333E-01  0.3333E-01
    -17.087  0.0000E+00  0.0000E+00  0.3333E-01  0.3333E-01
    -16.981  0.0000E+00  0.0000E+00  0.3333E-01  0.3333E-01
    -16.875  0.0000E+00  0.0000E+00  0.3333E-01  0.3333E-01
    -16.769  0.0000E+00  0.0000E+00  0.3333E-01  0.3333E-01
    -16.663  0.0000E+00  0.0000E+00  0.3333E-01  0.3333E-01
    -16.557  0.0000E+00  0.0000E+00  0.3333E-01  0.3333E-01
    -16.451  0.0000E+00  0.0000E+00  0.3333E-01  0.3333E-01
    -16.345  0.0000E+00  0.0000E+00  0.3333E-01  0.3333E-01
    -16.238  0.0000E+00  0.0000E+00  0.3333E-01  0.3333E-01
    -16.132  0.0000E+00  0.0000E+00  0.3333E-01  0.3333E-01
    -16.026  0.0000E+00  0.0000E+00  0.3333E-01  0.3333E-01
    -15.920  0.0000E+00  0.0000E+00  0.3333E-01  0.3333E-01
    -15.814  0.0000E+00  0.0000E+00  0.3333E-01  0.3333E-01
    -15.708  0.0000E+00  0.0000E+00  0.3333E-01  0.3333E-01
    -15.602  0.0000E+00  0.0000E+00  0.3333E-01  0.3333E-01
    -15.496  0.0000E+00  0.0000E+00  0.3333E-01  0.3333E-01
    -15.390  0.0000E+00  0.0000E+00  0.3333E-01  0.3333E-01
    -15.284  0.0000E+00  0.0000E+00  0.3333E-01  0.3333E-01
    -15.178  0.0000E+00  0.0000E+00  0.3333E-01  0.3333E-01
    -15.072  0.0000E+00  0.0000E+00  0.3333E-01  0.3333E-01
    -14.966  0.0000E+00  0.0000E+00  0.3333E-01  0.3333E-01
    -14.860  0.0000E+00  0.0000E+00  0.3333E-01  0.3333E-01
    -14.753  0.0000E+00  0.0000E+00  0.3333E-01  0.3333E-01
    -14.647  0.0000E+00  0.0000E+00  0.3333E-01  0.3333E-01
    -14.541  0.0000E+00  0.0000E+00  0.3333E-01  0.3333E-01
    -14.435  0.0000E+00  0.0000E+00  0.3333E-01  0.3333E-01
    -14.329  0.0000E+00  0.0000E+00  0.3333E-01  0.3333E-01
    -14.223  0.0000E+00  0.0000E+00  0.3333E-01  0.3333E-01
    -14.117  0.0000E+00  0.0000E+00  0.3333E-01  0.3333E-01
    -14.011  0.0000E+00  0.0000E+00  0.3333E-01  0.3333E-01
    -13.905  0.0000E+00  0.0000E+00  0.3333E-01  0.3333E-01
    -13.799  0.0000E+00  0.0000E+00  0.3333E-01  0.3333E-01
    -13.693  0.0000E+00  0.0000E+00  0.3333E-01  0.3333E-01
    -13.587  0.0000E+00  0.0000E+00  0.3333E-01  0.3333E-01
    -13.481  0.0000E+00  0.0000E+00  0.3333E-01  0.3333E-01
    -13.374  0.0000E+00  0.0000E+00  0.3333E-01  0.3333E-01
    -13.268  0.0000E+00  0.0000E+00  0.3333E-01  0.3333E-01
    -13.162  0.0000E+00  0.0000E+00  0.3333E-01  0.3333E-01
    -13.056  0.0000E+00  0.0000E+00  0.3333E-01  0.3333E-01
    -12.950  0.0000E+00  0.0000E+00  0.3333E-01  0.3333E-01
    -12.844  0.0000E+00  0.0000E+00  0.3333E-01  0.3333E-01
    -12.738  0.0000E+00  0.0000E+00  0.3333E-01  0.3333E-01
    -12.632  0.0000E+00  0.0000E+00  0.3333E-01  0.3333E-01
    -12.526  0.0000E+00  0.0000E+00  0.3333E-01  0.3333E-01
    -12.420  0.0000E+00  0.0000E+00  0.3333E-01  0.3333E-01
    -12.314  0.0000E+00  0.0000E+00  0.3333E-01  0.3333E-01
    -12.208  0.0000E+00  0.0000E+00  0.3333E-01  0.3333E-01
    -12.102  0.0000E+00  0.0000E+00  0.3333E-01  0.3333E-01
    -11.995  0.0000E+00  0.0000E+00  0.3333E-01  0.3333E-01
    -11.889  0.0000E+00  0.0000E+00  0.3333E-01  0.3333E-01
    -11.783  0.0000E+00  0.0000E+00  0.3333E-01  0.3333E-01
    -11.677  0.0000E+00  0.0000E+00  0.3333E-01  0.3333E-01
    -11.571  0.0000E+00  0.0000E+00  0.3333E-01  0.3333E-01
    -11.465  0.0000E+00  0.0000E+00  0.3333E-01  0.3333E-01
    -11.359  0.0000E+00  0.0000E+00  0.3333E-01  0.3333E-01
    -11.253  0.0000E+00  0.0000E+00  0.3333E-01  0.3333E-01
    -11.147  0.0000E+00  0.0000E+00  0.3333E-01  0.3333E-01
    -11.041  0.0000E+00  0.0000E+00  0.3333E-01  0.3333E-01
    -10.935  0.0000E+00  0.0000E+00  0.3333E-01  0.3333E-01
    -10.829  0.0000E+00  0.0000E+00  0.3333E-01  0.3333E-01
    -10.723  0.0000E+00  0.0000E+00  0.3333E-01  0.3333E-01
    -10.616  0.0000E+00  0.0000E+00  0.3333E-01  0.3333E-01
    -10.510  0.0000E+00  0.0000E+00  0.3333E-01  0.3333E-01
    -10.404 -0.2323E-35 -0.3905E-30  0.3333E-01  0.3333E-01
    -10.298 -0.7776E-21 -0.6545E-17  0.3333E-01  0.3333E-01
    -10.192 -0.2785E-10 -0.1126E-07  0.3333E-01  0.3333E-01
    -10.086 -0.9343E-04 -0.1497E-02  0.3332E-01  0.3317E-01
     -9.980  0.1860E-01  0.1032E+00  0.3530E-01  0.4412E-01
     -9.874  0.1422E+00  0.5587E-01  0.5039E-01  0.5005E-01
     -9.768 -0.3632E-02 -0.4272E-03  0.5000E-01  0.5000E-01
     -9.662 -0.1500E-06 -0.6135E-09  0.5000E-01  0.5000E-01
     -9.556 -0.3838E-15  0.0000E+00  0.5000E-01  0.5000E-01
     -9.450  0.0000E+00  0.0000E+00  0.5000E-01  0.5000E-01
     -9.344  0.0000E+00  0.0000E+00  0.5000E-01  0.5000E-01
     -9.238  0.0000E+00  0.0000E+00  0.5000E-01  0.5000E-01
     -9.131  0.0000E+00  0.0000E+00  0.5000E-01  0.5000E-01
     -9.025  0.0000E+00  0.0000E+00  0.5000E-01  0.5000E-01
     -8.919 -0.9918E-42 -0.1876E-31  0.5000E-01  0.5000E-01
     -8.813 -0.7030E-26 -0.4834E-18  0.5000E-01  0.5000E-01
     -8.707 -0.5476E-14 -0.1283E-08  0.5000E-01  0.5000E-01
     -8.601 -0.4368E-06 -0.2730E-03  0.5000E-01  0.4997E-01
     -8.495 -0.1392E-02  0.2253E-01  0.4985E-01  0.5236E-01
     -8.389  0.4101E-01  0.1510E-01  0.5420E-01  0.5396E-01
     -8.283  0.2849E-02  0.7404E-01  0.5450E-01  0.6182E-01
     -8.177  0.7768E-01  0.5508E-02  0.6275E-01  0.6240E-01
     -8.071  0.1242E-01  0.4146E-01  0.6406E-01  0.6680E-01
     -7.965  0.2315E-01  0.1378E-01  0.6652E-01  0.6826E-01
     -7.859  0.6978E-01  0.6401E-01  0.7392E-01  0.7505E-01
     -7.752  0.9239E-02  0.5185E-01  0.7490E-01  0.8055E-01
     -7.646  0.8164E-01  0.2647E-01  0.8356E-01  0.8336E-01
     -7.540 -0.2145E-02 -0.5601E-03  0.8333E-01  0.8330E-01
     -7.434 -0.2690E-02  0.3463E-01  0.8305E-01  0.8697E-01
     -7.328  0.1158E+00  0.8269E-01  0.9533E-01  0.9574E-01
     -7.222  0.4029E-01  0.7837E-01  0.9961E-01  0.1041E+00
     -7.116  0.4079E-01  0.7738E-02  0.1039E+00  0.1049E+00
     -7.010  0.1241E+00  0.1350E+00  0.1171E+00  0.1192E+00
     -6.904  0.3395E-01  0.1673E-01  0.1207E+00  0.1210E+00
     -6.798  0.7012E-01  0.9228E-01  0.1281E+00  0.1308E+00
     -6.692  0.8809E-01  0.6613E-01  0.1375E+00  0.1378E+00
     -6.586  0.1376E+00  0.1913E+00  0.1521E+00  0.1581E+00
     -6.480  0.1820E+00  0.1514E+00  0.1714E+00  0.1741E+00
     -6.373  0.2151E+00  0.1902E+00  0.1942E+00  0.1943E+00
     -6.267  0.1807E+00  0.1133E+00  0.2134E+00  0.2063E+00
     -6.161  0.1724E+00  0.1210E+00  0.2317E+00  0.2191E+00
     -6.055  0.2049E+00  0.1474E+00  0.2534E+00  0.2348E+00
     -5.949  0.8538E-02  0.1666E+00  0.2543E+00  0.2525E+00
     -5.843  0.1497E+00  0.5210E-01  0.2702E+00  0.2580E+00
     -5.737  0.1136E+00  0.2011E+00  0.2822E+00  0.2793E+00
     -5.631  0.1641E+00  0.8206E-01  0.2996E+00  0.2880E+00
     -5.525  0.6676E-01  0.1525E+00  0.3067E+00  0.3042E+00
     -5.419  0.1708E+00  0.6728E-01  0.3248E+00  0.3113E+00
     -5.313  0.3962E-01  0.1086E+00  0.3290E+00  0.3228E+00
     -5.207  0.1859E+00  0.7256E-01  0.3488E+00  0.3305E+00
     -5.101  0.2664E+00  0.1870E+00  0.3770E+00  0.3504E+00
     -4.995  0.5893E-01  0.1838E+00  0.3833E+00  0.3699E+00
     -4.888  0.1960E+00  0.1280E+00  0.4041E+00  0.3835E+00
     -4.782  0.3856E+00  0.6004E-01  0.4450E+00  0.3898E+00
     -4.676  0.3144E+00  0.2688E+00  0.4783E+00  0.4183E+00
     -4.570  0.3816E+00  0.1586E+00  0.5188E+00  0.4352E+00
     -4.464  0.6479E+00  0.2262E+00  0.5875E+00  0.4592E+00
     -4.358  0.4265E+00  0.3290E+00  0.6328E+00  0.4940E+00
     -4.252  0.5814E+00  0.3746E+00  0.6944E+00  0.5338E+00
     -4.146  0.6989E+00  0.3601E+00  0.7686E+00  0.5720E+00
     -4.040  0.1220E+01  0.4546E+00  0.8979E+00  0.6202E+00
     -3.934  0.1213E+01  0.5401E+00  0.1027E+01  0.6775E+00
     -3.828  0.9724E+00  0.3343E+00  0.1130E+01  0.7129E+00
     -3.722  0.9198E+00  0.4882E+00  0.1227E+01  0.7647E+00
     -3.616  0.1119E+01  0.6608E+00  0.1346E+01  0.8348E+00
     -3.509  0.7427E+00  0.6118E+00  0.1425E+01  0.8997E+00
     -3.403  0.8370E+00  0.1263E+01  0.1514E+01  0.1034E+01
     -3.297  0.1142E+01  0.1083E+01  0.1635E+01  0.1149E+01
     -3.191  0.1087E+01  0.1093E+01  0.1750E+01  0.1264E+01
     -3.085  0.9296E+00  0.6204E+00  0.1849E+01  0.1330E+01
     -2.979  0.1317E+01  0.6042E+00  0.1988E+01  0.1394E+01
     -2.873  0.8181E+00  0.7706E+00  0.2075E+01  0.1476E+01
     -2.767  0.1314E+01  0.7525E+00  0.2215E+01  0.1556E+01
     -2.661  0.1077E+01  0.1215E+01  0.2329E+01  0.1685E+01
     -2.555  0.2024E+01  0.9909E+00  0.2544E+01  0.1790E+01
     -2.449  0.2361E+01  0.9459E+00  0.2794E+01  0.1890E+01
     -2.343  0.1385E+01  0.1123E+01  0.2941E+01  0.2009E+01
     -2.237  0.1300E+01  0.9927E+00  0.3079E+01  0.2115E+01
     -2.130  0.1235E+01  0.1005E+01  0.3210E+01  0.2221E+01
     -2.024  0.1621E+01  0.1150E+01  0.3382E+01  0.2343E+01
     -1.918  0.1812E+01  0.1447E+01  0.3574E+01  0.2497E+01
     -1.812  0.1615E+01  0.1533E+01  0.3745E+01  0.2659E+01
     -1.706  0.1746E+01  0.2029E+01  0.3930E+01  0.2874E+01
     -1.600  0.1630E+01  0.1353E+01  0.4103E+01  0.3018E+01
     -1.494  0.2030E+01  0.1263E+01  0.4319E+01  0.3152E+01
     -1.388  0.1953E+01  0.1315E+01  0.4526E+01  0.3291E+01
     -1.282  0.1927E+01  0.1808E+01  0.4730E+01  0.3483E+01
     -1.176  0.2424E+01  0.1704E+01  0.4987E+01  0.3664E+01
     -1.070  0.2193E+01  0.1640E+01  0.5220E+01  0.3838E+01
     -0.964  0.2819E+01  0.1701E+01  0.5519E+01  0.4018E+01
     -0.858  0.1506E+01  0.1586E+01  0.5679E+01  0.4186E+01
     -0.751  0.3330E+00  0.1826E+01  0.5714E+01  0.4380E+01
     -0.645  0.3767E+00  0.1682E+01  0.5754E+01  0.4559E+01
     -0.539  0.3098E+00  0.1517E+01  0.5787E+01  0.4719E+01
     -0.433  0.2366E+00  0.2171E+01  0.5812E+01  0.4950E+01
     -0.327  0.1428E+00  0.1959E+01  0.5827E+01  0.5158E+01
     -0.221  0.2260E+00  0.1610E+01  0.5851E+01  0.5328E+01
     -0.115  0.9805E-01  0.1978E+01  0.5861E+01  0.5538E+01
     -0.009  0.2083E+00  0.1597E+01  0.5884E+01  0.5707E+01
      0.097  0.2576E+00  0.5956E+00  0.5911E+01  0.5771E+01
      0.203  0.1298E+00  0.4489E+00  0.5925E+01  0.5818E+01
      0.309  0.1787E+00  0.3104E+00  0.5944E+01  0.5851E+01
      0.415  0.2000E+00  0.1649E+00  0.5965E+01  0.5869E+01
      0.521  0.1882E+00  0.2407E+00  0.5985E+01  0.5894E+01
      0.627  0.1536E+00  0.2432E+00  0.6001E+01  0.5920E+01
      0.734  0.2164E+00  0.2368E+00  0.6024E+01  0.5945E+01
      0.840  0.1731E+00  0.2151E+00  0.6042E+01  0.5968E+01
      0.946  0.1293E+00  0.2149E+00  0.6056E+01  0.5991E+01
      1.052  0.9923E-01  0.2506E+00  0.6067E+01  0.6017E+01
      1.158  0.2562E+00  0.1410E+00  0.6094E+01  0.6032E+01
      1.264  0.2048E+00  0.2419E+00  0.6115E+01  0.6058E+01
      1.370  0.1730E+00  0.8131E-01  0.6134E+01  0.6067E+01
      1.476  0.8474E-01  0.2131E+00  0.6143E+01  0.6089E+01
      1.582  0.1322E+00  0.2581E+00  0.6157E+01  0.6117E+01
      1.688  0.3039E+00  0.1704E+00  0.6189E+01  0.6135E+01
      1.794  0.1324E+00  0.1362E+00  0.6203E+01  0.6149E+01
      1.900  0.1168E+00  0.2339E+00  0.6216E+01  0.6174E+01
      2.006  0.1464E+00  0.1914E+00  0.6231E+01  0.6194E+01
      2.113  0.1724E+00  0.1600E+00  0.6249E+01  0.6211E+01
      2.219  0.1324E+00  0.1486E+00  0.6263E+01  0.6227E+01
      2.325  0.2095E+00  0.1695E+00  0.6286E+01  0.6245E+01
      2.431  0.1174E+00  0.2174E+00  0.6298E+01  0.6268E+01
      2.537  0.2717E+00  0.1139E+00  0.6327E+01  0.6280E+01
      2.643  0.1411E+00  0.1475E+00  0.6342E+01  0.6296E+01
      2.749  0.1590E+00  0.2786E+00  0.6359E+01  0.6325E+01
      2.855  0.1129E+00  0.1970E+00  0.6371E+01  0.6346E+01
      2.961  0.1512E+00  0.1486E+00  0.6387E+01  0.6362E+01
      3.067  0.2140E+00  0.1265E+00  0.6409E+01  0.6375E+01
      3.173  0.1282E+00  0.1622E+00  0.6423E+01  0.6393E+01
      3.279  0.1615E+00  0.1766E+00  0.6440E+01  0.6411E+01
      3.385  0.1694E+00  0.2455E+00  0.6458E+01  0.6437E+01
      3.492  0.1134E+00  0.1319E+00  0.6470E+01  0.6451E+01
      3.598  0.1837E+00  0.1056E+00  0.6490E+01  0.6463E+01
      3.704  0.1710E+00  0.1283E+00  0.6508E+01  0.6476E+01
      3.810  0.2273E-01  0.2006E+00  0.6510E+01  0.6497E+01
      3.916  0.1498E+00  0.1038E+00  0.6526E+01  0.6508E+01
      4.022  0.8579E-01  0.6958E-01  0.6535E+01  0.6516E+01
      4.128  0.1791E+00  0.1327E+00  0.6554E+01  0.6530E+01
      4.234  0.2118E+00  0.1059E+00  0.6577E+01  0.6541E+01
      4.340  0.2410E+00  0.1898E+00  0.6602E+01  0.6561E+01
      4.446  0.1892E+00  0.2685E+00  0.6622E+01  0.6590E+01
      4.552  0.2524E+00  0.2962E+00  0.6649E+01  0.6621E+01
      4.658  0.2493E+00  0.1957E+00  0.6675E+01  0.6642E+01
      4.764  0.2605E+00  0.2726E+00  0.6703E+01  0.6671E+01
      4.870  0.2577E+00  0.2167E+00  0.6730E+01  0.6694E+01
      4.977  0.2988E+00  0.2581E+00  0.6762E+01  0.6721E+01
      5.083  0.3033E+00  0.3060E+00  0.6794E+01  0.6754E+01
      5.189  0.2027E+00  0.3558E+00  0.6816E+01  0.6791E+01
      5.295  0.1984E+00  0.2338E+00  0.6837E+01  0.6816E+01
      5.401  0.2429E+00  0.1441E+00  0.6863E+01  0.6832E+01
      5.507  0.2286E+00  0.2712E+00  0.6887E+01  0.6860E+01
      5.613  0.1251E+00  0.2529E+00  0.6900E+01  0.6887E+01
      5.719 -0.1490E-02  0.1245E+00  0.6900E+01  0.6900E+01
      5.825 -0.9561E-05 -0.2875E-02  0.6900E+01  0.6900E+01
      5.931 -0.6074E-12 -0.3052E-06  0.6900E+01  0.6900E+01
      6.037  0.0000E+00 -0.2010E-14  0.6900E+01  0.6900E+01
      6.143  0.0000E+00  0.0000E+00  0.6900E+01  0.6900E+01
      6.249  0.0000E+00  0.0000E+00  0.6900E+01  0.6900E+01
      6.356  0.0000E+00  0.0000E+00  0.6900E+01  0.6900E+01
      6.462  0.0000E+00  0.0000E+00  0.6900E+01  0.6900E+01
      6.568  0.0000E+00  0.0000E+00  0.6900E+01  0.6900E+01
      6.674  0.0000E+00  0.0000E+00  0.6900E+01  0.6900E+01
      6.780  0.0000E+00  0.0000E+00  0.6900E+01  0.6900E+01
      6.886  0.0000E+00  0.0000E+00  0.6900E+01  0.6900E+01
      6.992  0.0000E+00  0.0000E+00  0.6900E+01  0.6900E+01
      7.098  0.0000E+00  0.0000E+00  0.6900E+01  0.6900E+01
